ti                                                                      
SP        RHF                                                         Gen                 
Number of atoms                            I                3
Info1-9                                    I   N=           9
          98          97           0           0           0         111
           1           1           2
Charge                                     I                0
Multiplicity                               I                1
Number of electrons                        I               48
Number of alpha electrons                  I               24
Number of beta electrons                   I               24
Number of basis functions                  I               44
Number of independent functions            I               44
Number of point charges in /Mol/           I                0
Number of translation vectors              I                0
Atomic numbers                             I   N=           3
          30           9           9
Nuclear charges                            R   N=           3
  3.00000000E+01  9.00000000E+00  9.00000000E+00
Current cartesian coordinates              R   N=           9
  0.00000000E+00  0.00000000E+00  0.00000000E+00  0.00000000E+00  0.00000000E+00
  1.88972613E+00  0.00000000E+00  0.00000000E+00 -1.88972613E+00
Force Field                                I                0
Int Atom Types                             I   N=           3
           0           0           0
MM charges                                 R   N=           3
  0.00000000E+00  0.00000000E+00  0.00000000E+00
Integer atomic weights                     I   N=           3
          64          19          19
Real atomic weights                        R   N=           3
  6.39291454E+01  1.89984032E+01  1.89984032E+01
Atom fragment info                         I   N=           3
           0           0           0
Atom residue num                           I   N=           3
           0           0           0
Nuclear spins                              I   N=           3
           0           1           1
Nuclear ZEff                               R   N=           3
 -2.55000000E+01 -6.75000000E+00 -6.75000000E+00
Nuclear QMom                               R   N=           3
  0.00000000E+00  0.00000000E+00  0.00000000E+00
Nuclear GFac                               R   N=           3
  0.00000000E+00  2.62886700E+00  2.62886700E+00
MicOpt                                     I   N=           3
          -1          -1          -1
Number of contracted shells                I               10
Number of primitive shells                 I               90
Pure/Cartesian d shells                    I                0
Pure/Cartesian f shells                    I                0
Highest angular momentum                   I                5
Largest degree of contraction              I               22
Shell types                                I   N=          10
           0           1          -2          -3          -4          -5
           0           1           0           1
Number of primitives per shell             I   N=          10
          22          18          11           1           1           1
          12           6          12           6
Shell to atom map                          I   N=          10
           1           1           1           1           1           1
           2           2           3           3
Primitive exponents                        R   N=          90
  1.78529300E+07  2.67303800E+06  6.08324400E+05  1.72317600E+05  5.62226900E+04
  2.02998500E+04  7.91887100E+03  3.28534000E+03  1.43352400E+03  6.52288900E+02
  3.07436000E+02  1.49146600E+02  7.34510800E+01  3.39256200E+01  1.71894700E+01
  8.66659500E+00  3.97250500E+00  1.89466500E+00  8.59385000E-01  1.95256000E-01
  8.58540000E-02  3.67810000E-02  5.28679300E+04  1.25117900E+04  4.06528600E+03
  1.55759500E+03  6.63289200E+02  3.04156100E+02  1.47368000E+02  7.44546900E+01
  3.87149300E+01  2.05702200E+01  1.10542500E+01  5.87466100E+00  3.05293600E+00
  1.54722500E+00  7.54151000E-01  2.65349000E-01  1.02067000E-01  3.87550000E-02
  6.39780600E+02  1.92674200E+02  7.48436800E+01  3.28604800E+01  1.53935300E+01
  7.52551200E+00  3.71542900E+00  1.80645900E+00  8.52973000E-01  3.84780000E-01
  1.59337000E-01  8.69600000E+00  6.89330000E+00  4.41360000E+00  7.45300000E+04
  1.11700000E+04  2.54300000E+03  7.21000000E+02  2.35900000E+02  8.56000000E+01
  3.35500000E+01  1.39300000E+01  5.91500000E+00  1.84300000E+00  7.12400000E-01
  2.63700000E-01  8.03900000E+01  1.86300000E+01  5.69400000E+00  1.95300000E+00
  6.70200000E-01  2.16600000E-01  7.45300000E+04  1.11700000E+04  2.54300000E+03
  7.21000000E+02  2.35900000E+02  8.56000000E+01  3.35500000E+01  1.39300000E+01
  5.91500000E+00  1.84300000E+00  7.12400000E-01  2.63700000E-01  8.03900000E+01
  1.86300000E+01  5.69400000E+00  1.95300000E+00  6.70200000E-01  2.16600000E-01
Contraction coefficients                   R   N=          90
  2.10660308E-06  1.63805106E-05  8.61717832E-05  3.64002814E-04  1.32577805E-03
  4.31539416E-03  1.27891705E-02  3.45954113E-02  8.42346831E-02  1.76949707E-01
  2.94771811E-01  3.28605412E-01  1.83732607E-01  2.84564011E-02 -1.56247106E-03
  1.05769404E-03 -4.83214718E-04  1.79594307E-04 -7.19836627E-05  2.20010508E-05
 -1.56551006E-05  4.98071719E-06  1.10000077E-05  9.40000656E-05  5.51000385E-04
  2.51100175E-03  9.47000661E-03  3.01690211E-02  8.08550564E-02  1.75139122E-01
  2.89716202E-01  3.29849230E-01  2.09294146E-01  5.62590393E-02  5.05200353E-03
  9.97000696E-04  1.87000131E-04  5.10000356E-05 -1.30000091E-05  4.00000279E-06
  2.07999940E-04  1.95399944E-03  1.07109969E-02  3.90569888E-02  1.04847970E-01
  2.04568941E-01  2.85207918E-01  3.01445913E-01  2.46227929E-01  1.39015960E-01
  3.62689896E-02  1.00000000E+00  1.00000000E+00  1.00000000E+00  9.50001037E-05
  7.38000806E-04  3.85800421E-03  1.59260174E-02  5.42890593E-02  1.49513163E-01
  3.08252337E-01  3.94853431E-01  2.11031230E-01  1.71510187E-02 -2.01500220E-03
  8.69000949E-04  6.34699964E-03  4.42039975E-02  1.68513990E-01  3.61562979E-01
  4.42177975E-01  2.43434986E-01  9.50001037E-05  7.38000806E-04  3.85800421E-03
  1.59260174E-02  5.42890593E-02  1.49513163E-01  3.08252337E-01  3.94853431E-01
  2.11031230E-01  1.71510187E-02 -2.01500220E-03  8.69000949E-04  6.34699964E-03
  4.42039975E-02  1.68513990E-01  3.61562979E-01  4.42177975E-01  2.43434986E-01
Coordinates of each shell                  R   N=          30
  0.00000000E+00  0.00000000E+00  0.00000000E+00  0.00000000E+00  0.00000000E+00
  0.00000000E+00  0.00000000E+00  0.00000000E+00  0.00000000E+00  0.00000000E+00
  0.00000000E+00  0.00000000E+00  0.00000000E+00  0.00000000E+00  0.00000000E+00
  0.00000000E+00  0.00000000E+00  0.00000000E+00  0.00000000E+00  0.00000000E+00
  1.88972613E+00  0.00000000E+00  0.00000000E+00  1.88972613E+00  0.00000000E+00
  0.00000000E+00 -1.88972613E+00  0.00000000E+00  0.00000000E+00 -1.88972613E+00
Constraint Structure                       R   N=           9
  0.00000000E+00  0.00000000E+00  0.00000000E+00  0.00000000E+00  0.00000000E+00
  1.88972613E+00  0.00000000E+00  0.00000000E+00 -1.88972613E+00
Num ILSW                                   I              100
ILSW                                       I   N=         100
           0           0           0           0           2           0
           0           0           0           0           0          -1
           0           0           0           0           0           0
           0           0           0           0           0           0
           1           1           0           0           0           0
           0           0      100000           0          -1           0
           0           0           0           0           0           0
           0           0           0           1           0           0
           0           0           1           0           0           0
           0           0           4          40           0           0
           0           0           0           0           0           0
           0           0           0           0           0           0
           0           0           0           0           0           0
           0           0           0           0           0           0
           0           0           0           0           0           0
           0           0           0           0           0           0
           0           0           0           0
Num RLSW                                   I               40
RLSW                                       R   N=          40
  1.00000000E+00  1.00000000E+00  1.00000000E+00  1.00000000E+00  1.00000000E+00
  0.00000000E+00  0.00000000E+00  1.00000000E+00  0.00000000E+00  0.00000000E+00
  0.00000000E+00  0.00000000E+00  1.00000000E+00  0.00000000E+00  0.00000000E+00
  0.00000000E+00  0.00000000E+00  1.00000000E+00  0.00000000E+00  0.00000000E+00
  0.00000000E+00  0.00000000E+00  1.00000000E+00  0.00000000E+00  0.00000000E+00
  0.00000000E+00  0.00000000E+00  1.00000000E+00  0.00000000E+00  0.00000000E+00
  0.00000000E+00  0.00000000E+00  1.00000000E+00  0.00000000E+00  0.00000000E+00
  0.00000000E+00  0.00000000E+00  0.00000000E+00  1.00000000E+00  1.00000000E+00
MxBond                                     I                2
NBond                                      I   N=           3
           2           1           1
IBond                                      I   N=           6
           2           3           1           0           1           0
RBond                                      R   N=           6
  3.00000000E+00  3.00000000E+00  3.00000000E+00  0.00000000E+00  3.00000000E+00
  0.00000000E+00
Virial Ratio                               R      1.703215416802629E+00
SCF Energy                                 R     -1.550602755609018E+03
Total Energy                               R     -1.550602755609018E+03
RMS Density                                R      2.415263507398205E-09
External E-field                           R   N=          35
  0.00000000E+00  0.00000000E+00  0.00000000E+00  0.00000000E+00  0.00000000E+00
  0.00000000E+00  0.00000000E+00  0.00000000E+00  0.00000000E+00  0.00000000E+00
  0.00000000E+00  0.00000000E+00  0.00000000E+00  0.00000000E+00  0.00000000E+00
  0.00000000E+00  0.00000000E+00  0.00000000E+00  0.00000000E+00  0.00000000E+00
  0.00000000E+00  0.00000000E+00  0.00000000E+00  0.00000000E+00  0.00000000E+00
  0.00000000E+00  0.00000000E+00  0.00000000E+00  0.00000000E+00  0.00000000E+00
  0.00000000E+00  0.00000000E+00  0.00000000E+00  0.00000000E+00  0.00000000E+00
IOpCl                                      I                0
IROHF                                      I                0
Alpha Orbital Energies                     R   N=          44
 -3.51754738E+02 -3.33365278E+01 -3.33365278E+01 -3.33066264E+01 -2.67821055E+01
 -2.67820713E+01 -1.26866960E+00 -8.20864768E-01 -8.20864768E-01 -8.07983102E-01
 -7.98684280E-01 -7.98684280E-01  3.12296826E+00  3.27074256E+00  3.27074257E+00
  3.63243022E+00  3.63243022E+00  2.60048704E+01  2.60048704E+01  2.60870429E+01
  2.60870429E+01  2.62522606E+01  2.62522606E+01  2.62871319E+01  2.74018768E+01
  2.74170835E+01  2.74170835E+01  2.74265423E+01  2.74265424E+01  2.74732842E+01
  2.74732842E+01  2.74763147E+01  2.74763147E+01  2.74856062E+01  2.74856062E+01
  3.25654942E+01  3.25654942E+01  3.26105511E+01  3.26105511E+01  3.26691207E+01
  3.26691207E+01  3.27185001E+01  3.27639298E+01  3.27639299E+01
Alpha MO coefficients                      R   N=        1936
  1.00000026E+00  3.28950738E-15  3.51171149E-15  3.32977924E-14  1.73799682E-06
 -8.52596332E-16 -6.49051377E-16  1.24644561E-15 -1.87323138E-15  7.29658122E-17
  2.01514582E-16 -8.04441930E-17  3.63020627E-17 -1.77362000E-16  1.05906698E-16
  2.22009794E-16  2.32804796E-08 -1.47047298E-15  2.26996477E-15  8.56769941E-17
  1.17641663E-16  1.43665554E-16  7.48737841E-17  2.32548193E-14  9.53131633E-17
 -1.38632247E-16  1.55105832E-16 -4.95703060E-17  1.01404311E-17 -1.96235687E-16
 -1.19330393E-16  5.69583363E-17  4.97187686E-17 -3.68887092E-18  4.03510079E-17
  7.35733597E-17  3.19584501E-07  1.45965175E-16  1.73525692E-16  1.28693022E-05
  3.19584501E-07 -2.32030072E-16 -3.00552774E-16 -1.28693022E-05 -1.23576531E-15
  8.52732052E-01 -5.22353308E-01 -1.81494532E-10 -1.12083632E-14  4.69374440E-13
 -2.87875896E-13  6.07193728E-14  1.37584134E-14  1.62689941E-13 -1.33349667E-04
  8.16852604E-05 -1.87014654E-13 -3.02365858E-14  7.75017838E-12  4.33751613E-12
 -5.36420651E-16  3.60829687E-15 -2.38342047E-15 -6.26010787E-16 -2.02156502E-16
  5.81081527E-16  5.66861002E-16 -4.68015534E-16  2.55698427E-16  3.64403078E-14
 -1.64617487E-05  1.00838814E-05 -1.13534858E-13 -1.98927420E-14 -2.91477771E-11
 -1.79427452E-11  1.26035150E-16  1.13312411E-15 -1.04854980E-13  6.31392588E-14
  1.48585540E-15 -1.50550882E-04  9.22221126E-05 -8.00927375E-14 -9.65815705E-15
 -1.50550882E-04  9.22221124E-05 -7.10112233E-14 -4.54683423E-15  5.22353308E-01
  8.52732052E-01 -5.64231710E-10 -4.05926900E-14  2.87884373E-13  4.68714118E-13
 -1.23187709E-14  6.13804025E-14  5.03410643E-13 -8.16852602E-05 -1.33349667E-04
  3.02092929E-14 -1.87187469E-13  5.19953040E-12 -7.81889789E-12 -7.92536714E-18
  2.03203630E-15  3.42345379E-15 -2.08389234E-16 -4.75664243E-16  1.56070015E-16
 -6.86309603E-16  2.67155234E-16 -7.79086174E-16  1.12435024E-13 -1.00838812E-05
 -1.64617484E-05  1.69959422E-14 -1.15890938E-13 -1.77591521E-11  2.91371379E-11
 -1.17472407E-15  1.79196124E-16 -6.34692530E-14 -1.05267001E-13  4.87422255E-15
 -9.22221126E-05 -1.50550882E-04 -2.52414750E-13  6.71251067E-16 -9.22221124E-05
 -1.50550882E-04 -2.17618077E-13 -3.49974380E-14  4.49489561E-10  3.86329428E-10
  1.00001501E+00  5.84314407E-13  4.93700292E-14  4.66077876E-14 -2.05731935E-16
  2.84383593E-16 -5.67746494E-04 -1.40134694E-13 -1.21354211E-13  1.06821561E-13
 -2.00409876E-13  2.27941785E-15 -3.42107259E-15  4.82580331E-15 -2.05418680E-16
  1.44809534E-16  1.31918164E-16  1.25704806E-16  2.95307405E-16  2.17717826E-17
  4.96217115E-16 -2.51542681E-16  1.58114066E-04  2.14183373E-13  1.83050202E-13
 -1.36369068E-13  2.56211798E-13 -1.92230896E-15 -7.23380375E-16 -7.37498093E-12
  4.63784112E-16  5.73443502E-16 -3.68429925E-16 -6.44463781E-06 -9.12033295E-14
 -7.88444855E-14  4.16060752E-04  6.44463774E-06 -7.04235463E-14 -5.93672665E-14
  4.16060752E-04  4.15030905E-12 -4.05829944E-15  3.52314967E-15 -6.33167186E-05
  1.15874256E-10  9.37978849E-16 -5.08008423E-16  4.18368612E-16  1.78299945E-16
  5.28434705E-06 -4.84803392E-15 -4.14744346E-15  2.21554564E-15 -4.36573099E-15
 -2.63794886E-17  1.27863988E-15 -1.05352469E-12 -2.88100791E-16  1.43619462E-16
  1.56276181E-16 -6.79887005E-17  1.92150720E-16  1.50408119E-16  4.00796971E-16
 -5.36992102E-16  3.39991243E-05 -4.91822308E-15 -4.26621217E-15  2.60992394E-16
 -2.78087998E-15  1.19031897E-16 -6.02804038E-16  1.81229306E-13  2.77776881E-16
 -1.06230575E-15 -5.62341084E-16  7.07106072E-01  1.79849484E-14  1.62220436E-14
  5.87394738E-04 -7.07105185E-01  1.53077961E-14  1.19204689E-14  5.87394097E-04
  6.61842783E-06  3.84694478E-15 -3.53166190E-15  3.97085032E-11  1.84751786E-04
 -7.04967436E-15 -4.49808784E-15 -1.56803464E-17 -1.69050610E-15 -3.31385252E-12
 -4.81744901E-16 -3.00973964E-17  2.00051428E-16  2.40465761E-16 -3.45236913E-16
  2.71731521E-16 -1.68001073E-06 -2.83330261E-15 -1.82114538E-15  8.34047600E-16
 -1.43351897E-15 -7.39253097E-16  1.01281404E-16  1.05861011E-13  1.12537460E-16
 -2.13224393E-11 -4.24770654E-16 -2.37272304E-16 -5.10188929E-16 -3.31839980E-16
  5.42069662E-16  2.22611186E-16  4.83600791E-16 -3.46394943E-16 -2.15837285E-16
 -4.77391543E-16  7.07095543E-01  2.07448915E-14  1.77197389E-14  5.11409678E-04
  7.07096430E-01 -1.75764768E-14 -1.46784002E-14 -5.11410415E-04  1.36317375E-02
  2.35377891E-14  2.18223341E-14  1.58484567E-12 -1.93054118E-02 -3.41350817E-13
 -2.79768048E-13  7.97235303E-13 -1.73893361E-12 -1.90403014E-13 -6.80590093E-15
 -6.33225236E-15 -4.96318016E-16  1.96397006E-16  1.18949854E-17 -1.41730628E-16
  2.43179179E-04 -1.03750249E-13 -8.80365207E-14  8.25523150E-14 -1.82843791E-13
 -2.79343306E-15  5.56275677E-15  1.90020032E-11 -4.30547449E-16 -1.57700356E-14
 -1.93113700E-15 -1.83458817E-15  5.21154029E-16 -1.30025465E-16 -4.36363844E-17
 -5.89686626E-17  2.67323942E-16 -1.17566655E-17  8.92639497E-17  7.71921119E-17
  4.25410245E-03 -3.72495398E-12 -3.20580160E-12  6.69099926E-01  4.25410245E-03
  2.59281720E-12  2.15039766E-12 -6.69099926E-01  1.46185788E-14 -5.10774870E-03
 -8.17848079E-03 -5.03472103E-12 -4.06063051E-14  8.00026785E-12  1.28252974E-11
 -2.28360627E-14  1.19330631E-13  4.02972616E-13  7.45236074E-04  1.19326523E-03
  4.26559354E-15  5.30132352E-15  3.17571529E-12 -5.08783980E-12 -1.70616262E-15
  9.32867992E-14  1.49271268E-13 -3.89473495E-16  1.39443094E-15  2.17276863E-18
 -2.11459822E-17  3.05753387E-16  1.77817043E-16 -5.08916843E-13 -1.29163264E-04
 -2.06815044E-04 -7.83356668E-16  1.17396576E-13  1.02720423E-11 -1.66522172E-11
  7.26610090E-15 -6.76256970E-16 -4.51195116E-12 -7.22496523E-12  8.41385940E-13
  3.68716617E-01  5.90385695E-01 -1.38590920E-10 -8.33376481E-13  3.68716616E-01
  5.90385694E-01 -1.40023699E-10  3.94293750E-15 -8.17848079E-03  5.10774870E-03
 -1.61358336E-12 -1.07595315E-14  1.28073827E-11 -8.01037766E-12  1.18832299E-13
  2.27850358E-14  1.28306879E-13  1.19326523E-03 -7.45236074E-04 -1.05516239E-14
  3.23726056E-15  5.08818224E-12  3.17958969E-12 -4.20898100E-16  1.49286632E-13
 -9.32112600E-14  1.99826225E-15  2.79851203E-16 -6.99824501E-17  2.71365805E-17
  2.54119750E-16  1.28053919E-16 -1.61162116E-13 -2.06815043E-04  1.29163263E-04
  6.15304752E-14  2.57475660E-14  1.66758854E-11  1.05433683E-11  2.06984712E-16
 -7.36476154E-15 -7.22448872E-12  4.51249677E-12  2.69489917E-13  5.90385695E-01
 -3.68716617E-01 -4.44547211E-11 -2.67333720E-13  5.90385694E-01 -3.68716616E-01
 -4.48405372E-11 -7.01038237E-13 -1.42947952E-12 -1.20956358E-12  2.71021339E-02
 -2.44267598E-12 -6.18421659E-13 -5.75216164E-13 -4.30306372E-15 -8.77595150E-17
 -1.63322398E-03  8.75873013E-14  7.37956923E-14  4.07772091E-15 -2.18536200E-14
 -2.88881061E-16  5.38329458E-16 -6.37392318E-14 -6.42361899E-15 -6.00933064E-15
  1.63967138E-15 -2.22205123E-16 -6.80727804E-17  9.21707329E-17 -3.14851698E-16
 -9.72965803E-17  7.98362878E-04  2.05090071E-13  1.75835398E-13 -1.18504977E-13
  1.62532426E-13  1.42669085E-14 -2.05465882E-14 -3.28320878E-11 -6.33384972E-16
 -2.84054236E-16  1.45808870E-16 -4.61623456E-03  8.72711567E-11  7.24685532E-11
  7.50231608E-01  4.61623456E-03  1.19911184E-10  1.02883877E-10  7.50231608E-01
  7.79636905E-14  3.74724793E-12  6.01447156E-12  8.17294968E-13  4.88660290E-13
  1.01599713E-02  1.62925878E-02 -2.28314412E-14  1.57931071E-13 -5.40088533E-14
 -5.09464509E-13 -8.17706275E-13 -1.43165999E-15  6.67325822E-15  5.87762204E-17
 -8.65932455E-17  6.44543346E-14  1.06438363E-04  1.70685165E-04  1.21099604E-14
 -4.34613299E-14 -1.65232256E-12  2.65673673E-12  1.46741507E-15 -1.79194101E-16
  2.16972153E-14  1.20927719E-13  1.95093967E-13 -3.66955940E-16  2.00282078E-15
 -1.83382120E-16  6.17390440E-16 -1.62112255E-16  1.05442695E-16 -3.21845523E-17
 -1.13946462E-16 -1.73993314E-13  3.77934875E-01  6.06058520E-01  2.65081373E-11
  1.08480757E-13 -3.77934876E-01 -6.06058521E-01  1.88585275E-11  2.49909527E-14
  6.00947906E-12 -3.74985882E-12  2.20157812E-13  1.55564591E-13  1.62925878E-02
 -1.01599713E-02  1.60546927E-13  2.22298263E-14 -1.44339327E-14 -8.17180303E-13
  5.09987765E-13  6.71304622E-15  1.26014717E-15  1.35948247E-16 -1.79468458E-18
  2.02674955E-14  1.70685165E-04 -1.06438363E-04 -6.34459674E-14 -4.31223560E-15
 -2.65231175E-12 -1.65814741E-12  1.58090565E-16 -1.34832280E-15  5.82127785E-15
  1.94054070E-13 -1.21615261E-13  1.88834820E-15  4.52189758E-16 -2.71506451E-16
 -2.04810014E-16  7.17888455E-17 -1.17896974E-16  1.61835286E-16  1.87388100E-17
 -4.84338606E-14  6.06058520E-01 -3.77934875E-01  7.33686650E-12  2.76389936E-14
 -6.06058521E-01  3.77934876E-01  4.88244279E-12  2.09825139E-03  2.98675060E-14
  2.75668150E-14 -4.80382726E-13  1.01241942E+00  4.17308326E-11  3.55959894E-11
  4.81530724E-11 -8.80654556E-11  2.07507091E-12  1.50492314E-13  1.39264770E-13
  2.22855030E-17  1.56388268E-16  7.34741576E-17 -8.68853557E-17  1.99168617E-03
  4.60822005E-12  3.94215895E-12 -2.57846879E-12  5.00195268E-12  4.63463257E-14
 -1.05082862E-13 -2.09988439E-10  2.49978454E-15  1.13970103E-13  5.75120687E-15
  5.19158977E-15  3.26322867E-16 -2.80337818E-16 -2.98094401E-16  3.14895490E-16
 -7.21016777E-17  1.56104511E-16 -4.43129559E-17 -3.26675931E-16 -6.00347043E-02
 -1.03532407E-11 -8.83050252E-12  1.02935763E-01 -6.00347043E-02  1.03710190E-11
  8.84616457E-12 -1.02935763E-01 -1.13394445E-13 -4.54965541E-14  4.20800490E-14
  1.16071060E-16 -4.87340867E-11 -8.04148727E-14  2.33836837E-13  9.99999953E-01
 -1.21867259E-06  1.29926152E-16 -4.44966558E-14  4.13287788E-14  1.58240436E-12
  2.82350697E-17  1.70661895E-13  1.57824157E-13 -1.39637924E-12 -8.67326023E-13
  7.00069324E-13 -3.07319338E-04  3.74515069E-10 -7.57712800E-15 -1.14349948E-14
  1.45094302E-13 -2.71826651E-13  2.83404214E-16 -1.51983972E-15  1.60489545E-15
  1.43762545E-14  3.86987746E-17 -2.48821362E-15 -2.33283330E-15 -3.97842314E-16
 -8.37151785E-18 -2.96666198E-16  1.71643268E-16  2.88744893E-12 -1.26200281E-13
  7.13611466E-14 -5.49530113E-12  2.88743978E-12  2.98496673E-15  4.27868102E-14
  5.50162373E-12  2.11371500E-13 -4.21539082E-14 -4.56795746E-14 -1.65502842E-16
  8.91251270E-11 -5.90106411E-13 -4.38955635E-13  1.21867259E-06  9.99999953E-01
 -9.56181211E-17 -4.11978029E-14 -4.45228465E-14 -9.13916018E-17  1.58259799E-12
 -1.57826175E-13  1.70515911E-13  2.57369848E-12 -8.52248213E-13 -9.44736958E-13
 -3.74505217E-10 -3.07318341E-04  1.06672395E-14 -5.80896261E-15  2.73520594E-13
  1.26580264E-13 -9.43570406E-18 -1.61212376E-15 -1.60903791E-15  8.83534519E-17
  1.42333372E-14  2.19613106E-15 -2.32651452E-15  2.00446627E-17  1.20613410E-16
 -1.57379822E-16 -2.33301653E-17 -5.27994381E-12  1.62867472E-14 -3.77019279E-14
  1.02439811E-11 -5.27997761E-12 -1.29575312E-13 -8.45858735E-14 -1.02439052E-11
 -9.76813537E-14 -2.64731946E-13 -4.39017175E-13 -5.63274916E-14 -4.99830181E-11
  5.43936484E-01  9.02583886E-01 -1.50591220E-13  6.37930002E-13 -1.47249040E-13
  1.07985017E-12  1.79174447E-12 -4.06615686E-14  1.95856772E-13  1.53586234E-17
 -9.97558875E-17  5.60922932E-12 -4.28660671E-04 -7.11300355E-04  4.16080219E-13
 -2.71077875E-12 -1.13804420E-10  1.91690523E-10 -3.47778258E-15 -2.02852490E-15
 -9.79422571E-15  5.22980245E-14  8.64915022E-14  1.21238713E-15 -5.61715314E-15
  3.03181389E-16 -2.36252729E-16 -1.36217063E-17 -1.09035159E-16  3.97728054E-17
  3.74862147E-16  2.96835080E-12 -1.30275048E-01 -2.16172591E-01 -4.68324162E-12
  2.96975145E-12  1.30275048E-01  2.16172591E-01  5.01259187E-12 -3.24745538E-14
 -4.39062145E-13  2.64579666E-13 -1.63559103E-14 -1.66830038E-11  9.02583886E-01
 -5.43936484E-01  1.74136607E-13  2.63129333E-13 -4.25263038E-14  1.79201975E-12
 -1.08026115E-12  1.96098019E-13  4.06204280E-14  5.61698824E-17  1.61421954E-16
  1.86632361E-12 -7.11300364E-04  4.28660676E-04 -2.65695717E-12 -4.84362114E-13
 -1.91750969E-10 -1.17262533E-10  3.20782377E-15  3.72466077E-15 -2.84102803E-15
  8.70358664E-14 -5.22342163E-14 -6.14569204E-15 -1.35040860E-15  1.30530414E-16
  1.50333953E-16  1.49532386E-16 -4.98366779E-18  2.51603390E-16  2.48711765E-16
  9.90829217E-13 -2.16172591E-01  1.30275048E-01 -1.56397129E-12  9.91064260E-13
  2.16172591E-01 -1.30275048E-01  1.65948242E-12  6.26732290E-18 -1.63820131E-11
 -1.52963951E-11  2.74939413E-15 -4.00221768E-16 -1.48329074E-15 -6.61076668E-16
 -1.61463002E-14  2.31825738E-13  1.45808545E-11 -6.30873090E-08 -5.98746217E-08
  8.78606760E-12 -7.11985173E-11  7.25764172E-01 -6.87942664E-01 -7.40058925E-15
  1.00462287E-15  1.11633562E-14 -1.16826611E-14  1.37383998E-13  3.53509879E-12
 -3.34272766E-12  7.06402749E-13 -1.37300061E-14 -1.40294438E-11  2.84754440E-08
  2.70318886E-08 -4.11039317E-12  4.50112038E-11 -8.13889615E-04  7.71475656E-04
  4.17469528E-12 -6.41817123E-13 -4.67400509E-09 -4.43599461E-09  3.39412043E-14
  2.02380176E-12  1.83092507E-12 -9.19025163E-14 -3.45096098E-14  2.02273769E-12
  1.83019463E-12 -9.32012454E-14  3.33671117E-19 -1.50135138E-11  1.55949924E-11
 -2.80885240E-15  3.53418733E-16 -1.35594322E-15  3.11721158E-16 -2.33111941E-13
 -1.56274674E-14 -6.01312231E-12 -5.99409443E-08  6.33190275E-08  7.13757008E-11
  7.71115817E-12  6.87942664E-01  7.25764172E-01 -2.08599864E-15 -5.66773756E-17
 -6.85441261E-16 -1.32724664E-13 -8.94962984E-15  3.33774885E-12  3.53658373E-12
  7.79952449E-15  6.98694869E-13  3.92459496E-12  2.70757327E-08 -2.86078622E-08
 -4.50202665E-11 -4.97908122E-12 -7.71475654E-04 -8.13889616E-04  3.07325102E-13
  4.08749797E-12 -4.42005613E-09  4.66787310E-09 -8.91487187E-15  1.63831229E-12
 -1.64622975E-12  5.61641703E-15  8.82401342E-15  1.63890607E-12 -1.64471217E-12
  7.13083244E-15  2.65416009E-17  4.48784241E-14  5.51671024E-14  1.01234328E-12
 -7.62186838E-16 -1.43823298E-13 -1.55762089E-13  4.45476697E-16 -1.57407704E-12
  8.94050388E-10 -3.07995643E-10 -3.40315786E-10  7.03970961E-06  9.96749597E-01
  4.86267143E-11 -5.72482637E-11  3.75282005E-15 -1.81605622E-13 -1.92569832E-13
 -2.83723804E-16  6.02103282E-12 -4.26813029E-13  4.60577197E-13 -5.45413519E-15
 -3.63663675E-15 -1.00971807E-10  1.91818119E-11  1.24613097E-11 -5.68981126E-07
 -8.05620270E-02  4.76589438E-11 -5.61726018E-11  6.60156233E-11  3.75806598E-11
 -5.79385333E-13 -3.54687302E-13  1.23620918E-13  1.75282449E-12  2.06138335E-12
  7.31859074E-12 -1.23063027E-13  1.68754003E-12  1.99076978E-12  7.31837722E-12
 -6.09743193E-18  5.46737464E-14 -4.97817119E-14 -5.39699715E-13 -4.42812821E-16
 -1.55476161E-13  1.43320731E-13 -1.57363298E-12  1.99730876E-16 -4.82615937E-10
 -3.15536605E-10  2.53894383E-10  9.96749599E-01 -7.03970955E-06 -5.80977245E-11
 -4.80682564E-11 -4.03755894E-15 -2.02017095E-13  1.77717877E-13  6.01995359E-12
 -2.96965700E-15  4.51761516E-13  4.13698108E-13 -9.54051096E-15 -5.39145454E-16
  6.64573897E-11 -1.35053540E-11  2.05410111E-11 -8.05620037E-02  5.68981874E-07
 -5.55851359E-11 -4.88984860E-11  4.05488015E-11 -6.49537945E-11 -4.20303580E-13
  1.75349920E-13 -9.79388167E-14  2.27252541E-12 -1.97382562E-12 -3.74307492E-12
  9.83331592E-14  2.20424756E-12 -1.90556747E-12 -3.74265494E-12 -2.93412650E-16
  1.64333785E-04  2.75415149E-04  7.54757963E-12 -1.81717148E-13 -1.01433016E-12
 -1.70334972E-12 -1.29196596E-14  5.38103341E-14  6.57359292E-09  4.57430793E-01
  7.66630976E-01 -5.44427559E-11  4.09018439E-10  3.07157149E-08 -5.16087214E-08
 -2.41146338E-13  4.64042559E-12  7.77727706E-12 -8.75444195E-14  3.72983956E-13
  1.01656239E-14  5.63485079E-15  5.32536022E-16  5.34615663E-15  3.00048100E-09
  2.31032256E-01  3.87198427E-01  1.06970885E-11  1.88821843E-10  3.77809971E-08
 -6.35559665E-08  9.46081209E-12 -2.17963433E-12 -4.17473110E-09 -7.00023796E-09
 -8.89757513E-12 -6.22401541E-03 -1.04311364E-02  1.17729026E-10  8.91857020E-12
 -6.22401541E-03 -1.04311364E-02  1.17758541E-10 -5.85985166E-17  2.75415149E-04
 -1.64333785E-04  2.54892646E-12 -5.46008740E-14 -1.70510047E-12  1.01727036E-12
  5.31039692E-14  1.13926611E-14  2.21949926E-09  7.66630975E-01 -4.57430792E-01
  3.73518584E-10  8.03816904E-11  5.16068608E-08  3.08684002E-08 -6.51826616E-14
  7.78768451E-12 -4.65273118E-12  3.67101484E-13  7.40105966E-14 -1.12702051E-15
  3.46145467E-15  2.67200921E-15 -1.14537928E-14  1.01400247E-09  3.87198429E-01
 -2.31032256E-01  5.39854075E-11  5.25134530E-11  6.35714255E-08  3.80748675E-08
  5.98376514E-13 -9.93155345E-12 -6.99696199E-09  4.17681724E-09 -3.00718573E-12
 -1.04311365E-02  6.22401542E-03  3.97659314E-11  3.01305307E-12 -1.04311365E-02
  6.22401542E-03  3.97740347E-11 -9.40550448E-16 -2.11467960E-12 -1.80702387E-12
  1.04745308E-03 -1.84954113E-12  1.05245559E-13  9.86051220E-14 -1.88092101E-15
  5.48022810E-16  8.46405154E-01 -4.80095499E-09 -4.10307020E-09  4.02368153E-10
 -7.50412912E-10 -1.49829869E-12  5.56924242E-12  9.43332715E-12  2.55563377E-13
  2.33595593E-13  3.53999376E-15  2.72933452E-16 -6.05311416E-15  1.13115719E-14
  6.70790905E-16  2.46268617E-15  5.33021606E-01 -3.23991981E-09 -2.76812284E-09
  3.48681793E-10 -5.61616665E-10 -2.68352037E-11  4.09281318E-11  7.66416523E-08
  4.93329652E-13 -1.74514455E-13 -1.82788705E-14 -1.53179961E-03  7.68879535E-11
  6.56981012E-11  1.76732720E-02  1.53179961E-03  7.69360752E-11  6.57427795E-11
  1.76732720E-02  2.15957451E-15  8.99575940E-13  7.69238706E-13 -9.87834032E-05
  1.02611356E-12 -5.91358097E-14 -5.52877834E-14 -6.99442689E-16 -3.46250168E-16
 -5.32667942E-01 -3.08835554E-09 -2.63849153E-09 -3.06044370E-10  5.30783517E-10
  9.81579693E-12 -1.83222684E-11  1.25789758E-12 -8.29383453E-13 -7.61881918E-13
 -2.27526329E-15  2.06797637E-16 -2.48176889E-15  7.84953569E-15 -2.61131702E-15
  5.18971075E-17  8.46438827E-01  7.83348620E-09  6.69517711E-09  1.03382870E-10
 -4.06610457E-10  4.52973271E-11 -7.03756508E-11 -1.66531435E-07 -6.14756859E-13
  8.72208809E-14  1.71449020E-12 -2.13111399E-03 -9.06080705E-11 -7.74472035E-11
  9.12362632E-03  2.13111399E-03 -9.06444092E-11 -7.74819455E-11  9.12362632E-03
  2.91596944E-16  4.37036597E-05  7.30062735E-05  1.68648486E-12  8.28067014E-14
  4.65877800E-13  7.80248616E-13  4.79574525E-15 -2.53141742E-14  6.33561785E-09
 -2.31472509E-01 -3.86671172E-01 -1.19186475E-12 -1.52216223E-10 -3.81068040E-08
  6.38511286E-08  1.04780753E-12  1.27357513E-12  2.13293079E-12  1.53771990E-13
 -7.20844548E-13  2.47128853E-16  5.48163079E-15  6.79883402E-15 -1.41024156E-15